
Host: nrlogin1

Timers On : Sun Feb 16 09:08:08 2020
Timers Off: Sun Feb 16 09:08:18 2020

Wall Time:       10.47 seconds


-----------------------------------------------------------

***********************************************************

Host: nrlogin1

Timers On : Sun Feb 16 09:08:52 2020
Timers Off: Sun Feb 16 09:09:02 2020

Wall Time:        9.48 seconds


-----------------------------------------------------------

***********************************************************

Host: nrlogin1

Timers On : Sun Feb 16 09:09:58 2020
Timers Off: Sun Feb 16 09:10:08 2020

Wall Time:        9.39 seconds


-----------------------------------------------------------

***********************************************************

Host: nrlogin1

Timers On : Sun Feb 16 09:11:41 2020
Timers Off: Sun Feb 16 09:11:41 2020

Wall Time:        0.43 seconds


-----------------------------------------------------------

***********************************************************

Host: nrlogin1

Timers On : Sun Feb 16 09:12:19 2020
Timers Off: Sun Feb 16 09:12:31 2020

Wall Time:       12.11 seconds


-----------------------------------------------------------

***********************************************************
