
Host: nrlogin1

Timers On : Fri Dec  6 15:54:49 2019
Timers Off: Fri Dec  6 15:54:50 2019

Wall Time:        1.41 seconds


-----------------------------------------------------------

***********************************************************
